10
	Energy:       5.8761046
N         -0.06022       -0.19502        0.11621
C          1.39095       -0.04162        0.05103
C          2.01976       -0.10197        1.42010
O          1.33205       -0.25512        2.41782
H          1.81593       -0.86039       -0.56909
H          1.64282        0.93225       -0.42355
H         -0.46805        0.60622        0.64903
H         -0.44017       -0.15638       -0.85637
O          3.35771        0.01216        1.55444
H          3.93455        0.13107        0.78692
